
 Working directory              : /SCR1/amin/default_check_for_fortran_printing.165081-20251203/molpro.qQXuADlPyQ/
 Global scratch directory       : /SCR1/amin/default_check_for_fortran_printing.165081-20251203/molpro.qQXuADlPyQ/
 Wavefunction directory         : /home/linux3_i1/amin/molpro_calculations/F12XG_tests_and_optimization/main/Tests/comp_between_default_and_standard_cu/
 Main file repository           : /SCR1/amin/default_check_for_fortran_printing.165081-20251203/molpro.qQXuADlPyQ/

 id        : kamin

 Nodes     nprocs
 orpheus42    1
 GA implementation: MPI file
 GA implementation (serial work in mppx): MPI file

 Using customized tuning parameters: mindgm=1; mindgv=20; mindgc=4; mindgr=1; noblas=0; minvec=7
 default implementation of scratch files=df  


 Variables initialized (1064), CPU time= 0.00 sec
 memory,1000,m
 gprint,orbitals
 
 geomtyp=xyz
 geometry={Cu}
 set,charge=1
 basis=aug-cc-pVTZ
 
 gem_beta=[2.40]
 
 {df-hf}
 {df-mp2}
 do i=1, #gem_beta
 {df-mp2-f12,gem_beta=[gem_beta(i)],ANSATZ=3C(FIX)}
 tot_ener(i) = energy
 ref_ener(i) = energr
 corr_ener(i) = tot_ener(i) - ref_ener(i)
 enddo
 table,gem_beta,tot_ener,ref_ener,corr_ener;save,file='default_all_gamma.csv'
 Commands initialized (839), CPU time= 0.01 sec, 730 directives.
 Default parameters read. Elapsed time= 0.12 sec

 Checking input...
 Passed
1


                                         ***  PROGRAM SYSTEM MOLPRO  ***
                                       Copyright, TTI GmbH Stuttgart, 2015
                                  Version 2025.4 linked Wed Dec  3 19:43:05 2025


 **********************************************************************************************************************************
 LABEL *                                                                                                                                                                 
                                                                                         DATE: 03-Dec-25          TIME: 20:04:33  
 **********************************************************************************************************************************

 SHA1:             d48c7474e8c31dd1923e4183b496083c857874e3
 **********************************************************************************************************************************

 Memory per process:      1000 MW
 Total memory per node:   1000 MW

 GA preallocation disabled
 GA check disabled

 Variable memory set to 1000.0 MW


 GEOMTYP         =  'XYZ'

 Turning off symmetry in density fitting calculation
 To re-enable, use 'symmetry,auto'

 CHARGE          =       1.00000000                                  
 SETTING BASIS          =    AUG-CC-PVTZ
 GEM_BETA        =       2.40000000                                  


 Recomputing integrals since basis changed


 Using spherical harmonics

 Library entry CU     S aug-cc-pVTZ          selected for orbital group  1
 Library entry CU     P aug-cc-pVTZ          selected for orbital group  1
 Library entry CU     D aug-cc-pVTZ          selected for orbital group  1
 Library entry CU     F aug-cc-pVTZ          selected for orbital group  1
 Library entry CU     G aug-cc-pVTZ          selected for orbital group  1


 PROGRAM * SEWARD (Integral evaluation for generally contracted gaussian basis sets)     Author: Roland Lindh, 1990

 Geometry written to block  1 of record 700

 Orientation using atomic masses  
 Molecule type: Atom
 Rotational constants:       0.0000000      0.0000000      0.0000000 GHz  (calculated with average atomic masses)

 Point group  C1  



 ATOMIC COORDINATES

 NR  ATOM    CHARGE       X              Y              Z

   1  CU     29.00    0.000000000    0.000000000    0.000000000

 NUCLEAR CHARGE:                   29
 NUMBER OF PRIMITIVE AOS:         186
 NUMBER OF SYMMETRY AOS:          156
 NUMBER OF CONTRACTIONS:           93   (   93A   )
 NUMBER OF INNER CORE ORBITALS:     5   (    5A   )
 NUMBER OF OUTER CORE ORBITALS:     4   (    4A   )
 NUMBER OF VALENCE ORBITALS:        6   (    6A   )


 NUCLEAR REPULSION ENERGY .00000000

 EXTRA SYMMETRY OF AOS IN SYMMETRY 1:   1 1 1 1 1 1 1 1 2 3   4 2 3 4 2 3 4 2 3 4   2 3 4 2 3 4 2 3 4 5   6 7 8 9 5 6 7 8 9 5
                                        6 7 8 9 5 6 7 8 9 5   6 7 8 9101112131415  16101112131415161011  12131415161718192021
                                       22232425171819202122  232425

 Eigenvalues of metric

         1 0.511E-03 0.511E-03 0.511E-03 0.118E-02 0.159E-01 0.159E-01 0.159E-01 0.159E-01


 OPERATOR DM      FOR CENTER  0  COORDINATES:    0.000000    0.000000    0.000000


 **********************************************************************************************************************************
 DATASETS  * FILE   NREC   LENGTH (MB)   RECORD NAMES
              1      18       29.36       500      610      700      900      950      970     1000      129      960     1100   
                                          VAR    BASINP    GEOM    SYMINP    ZMAT    AOBASIS   BASIS     P2S    ABASIS      S 
                                         1400     1410     1200     1210     1080     1600     1650     1700   
                                           T        V       H0       H01     AOSYM     SMH    MOLCAS    OPER   

 PROGRAMS   *        TOTAL       INT
 CPU TIMES  *         0.74      0.60
 REAL TIME  *         1.05 SEC
 DISK USED  *        29.70 MB
 **********************************************************************************************************************************


 Program * Restricted Hartree-Fock

 Generating basis AVTZ-JKFIT
  Atom=CU       basis=def2-QZVPP/JKFIT
 Number of basis functions:     264


 Coulomb and exchange fitting
 Thresholds for fitting:       THRAO_COUL= 1.0D-15    THRAO_EXCH= 1.0D-13    THRMO= 1.0D-12    THRPROD= 1.0D-12    THRASM= 1.0D-12
                               THR2HLF=    1.0D-12

 Basis set AVTZ-JKFIT loaded. Number of basis functions: 264

 Orbital guess generated from atomic densities. Full valence occupancy:   15
 Using density fitting in orbital guess


 Initial occupancy:  14

 NELEC=   28   SYM=1   MS2= 0   THRE=1.0D-08   THRD=3.2D-06   THRG=3.2D-06  HFMA2=F  DIIS_START=2   DIIS_MAX=10   DIIS_INCORE=F

 Level shifts:    0.00 (CLOSED)    0.00 (OPEN)    0.30 (GAP_MIN)

 ITER           ETOT              DE          GRAD        DDIFF     DIIS  NEXP   TIME(IT)  TIME(TOT)  DIAG
   1    -1638.62857205   -1638.62857205     0.00D+00     0.11D+00     0     0       0.08      0.17    start
   2    -1638.58152637       0.04704568     0.17D-01     0.12D-01     1     0       0.08      0.25    diag
   3    -1638.72583113      -0.14430476     0.24D-01     0.79D-02     2     0       0.08      0.33    diag
   4    -1638.72654803      -0.00071690     0.16D-02     0.47D-03     3     0       0.08      0.41    diag
   5    -1638.72655202      -0.00000399     0.61D-04     0.10D-03     4     0       0.08      0.49    diag
   6    -1638.72655206      -0.00000004     0.76D-05     0.68D-05     5     0       0.08      0.57    diag
   7    -1638.72655206      -0.00000000     0.29D-06     0.46D-06     6     0       0.08      0.65    diag
   8    -1638.72655206       0.00000000     0.30D-07     0.16D-07     0     0       0.08      0.73    diag

 Final occupancy:  14

 !RHF STATE 1.1 Energy              -1638.726552059237
  RHF One-electron energy           -2280.798232836252
  RHF Two-electron energy             642.071680777015
  RHF Kinetic energy                 1638.657354620975
  RHF Nuclear energy                    0.000000000000
  RHF Virial quotient                  -1.000042228132

 !RHF STATE 1.1 Dipole moment          -0.00000000     0.00000000     0.00000000
 Dipole moment /Debye                  -0.00000000     0.00000000     0.00000000

 ELECTRON ORBITALS
 =================

  Orbital  Occupation    Energy    Cen Mu Typ  Coefficients
    1.1     2.00000  -329.10996     1  1  s    0.97696
    2.1     2.00000   -41.12864     1  2  s    0.97695
    3.1     2.00000   -35.92929     1  1  px   0.36158    1  1  py   0.92396
    4.1     2.00000   -35.92929     1  1  px   0.79390    1  1  pz  -0.56070
    5.1     2.00000   -35.92929     1  1  px   0.48880    1  1  py  -0.30158    1  1  pz   0.81858
    6.1     2.00000    -5.32522     1  3  s    0.99976
    7.1     2.00000    -3.64189     1  2  px  -0.64423    1  2  py   0.74667
    8.1     2.00000    -3.64189     1  2  px   0.75302    1  2  py   0.65694
    9.1     2.00000    -3.64189     1  2  pz   0.98563
   10.1     2.00000    -0.81003     1  1  d0   0.57432    1  1  d2- -0.26244    1  1  d1+  0.51498    1  1  d1- -0.56739
   11.1     2.00000    -0.81003     1  1  d1+  0.67325    1  1  d1-  0.72554
   12.1     2.00000    -0.81003     1  1  d0   0.79627    1  1  d2-  0.39235    1  1  d1+ -0.31942    1  1  d1-  0.34391
   13.1     2.00000    -0.81003     1  1  d2-  0.77159    1  1  d1+  0.34579    1  1  d2+ -0.48536
   14.1     2.00000    -0.81003     1  1  d2-  0.40403    1  1  d1+  0.26342    1  1  d2+  0.86542


 HOMO     14.1    -0.810026 =     -22.0419eV
 LUMO     15.1    -0.232960 =      -6.3392eV
 LUMO-HOMO         0.577066 =      15.7028eV

 Orbitals saved in record  2100.2


 **********************************************************************************************************************************
 DATASETS  * FILE   NREC   LENGTH (MB)   RECORD NAMES
              1      18       29.36       500      610      700      900      950      970     1000      129      960     1100   
                                          VAR    BASINP    GEOM    SYMINP    ZMAT    AOBASIS   BASIS     P2S    ABASIS      S 
                                         1400     1410     1200     1210     1080     1600     1650     1700   
                                           T        V       H0       H01     AOSYM     SMH    MOLCAS    OPER   

              2       4        0.66       700     1000      520     2100   
                                         GEOM     BASIS   MCVARS     RHF  

 PROGRAMS   *        TOTAL     DF-HF       INT
 CPU TIMES  *         1.49      0.75      0.60
 REAL TIME  *         1.92 SEC
 DISK USED  *        33.39 MB
 **********************************************************************************************************************************


 PROGRAM * MP2 (Closed-shell)     Authors: C. Hampel, H.-J. Werner, 1991, M. Deegan, P.J. Knowles, 1992


 Generating basis AUG-CC-PVTZ-MP2FIT
  Atom=CU       basis=aug-cc-pVTZ/MP2FIT
 Number of basis functions:     293


 Convergence thresholds:  THRVAR = 1.00D-08  THRDEN = 1.00D-06

 Number of core orbitals:           9 (   9 )
 Number of closed-shell orbitals:   5 (   5 )
 Number of external orbitals:      79 (  79 )

 Molecular orbitals read from record     2100.2  Type=RHF/CANONICAL (state 1.1)


 Entering DF-MP2

 Thresholds:    THRAO= 0.100D-13    THRMO= 0.100D-13    THROV= 0.100D-13    THRPROD= 0.100D-13

 Fitting basis: AUG-CC-PVTZ-MP2FIT
 Number of fitting functions:              293

 Minimum memory with paging:              1.23 MW
 Minimum memory for incore algorithm:     1.35 MW
 Memory for 3-index integrals:            0.00 MW

 Disk space for H1-integrals:             1.10 MB (   1 records)

 SCS-MP2 correlation energy:           -0.428606279004   (PS=  1.200000  PT=  0.333333)
 SCS-MP2 total energy:              -1639.155158338241

 Norm of first-order wave function:     0.048169120086
 Coefficient of reference function:     0.976752023382

  Reference energy                  -1638.726552059237
  MP2 singlet pair energy              -0.220098528965
  MP2 triplet pair energy              -0.264355785396
  MP2 correlation energy               -0.484454314361

 !MP2 total energy                  -1639.211006373598


 **********************************************************************************************************************************
 DATASETS  * FILE   NREC   LENGTH (MB)   RECORD NAMES
              1      18       29.36       500      610      700      900      950      970     1000      129      960     1100   
                                          VAR    BASINP    GEOM    SYMINP    ZMAT    AOBASIS   BASIS     P2S    ABASIS      S 
                                         1400     1410     1200     1210     1080     1600     1650     1700   
                                           T        V       H0       H01     AOSYM     SMH    MOLCAS    OPER   

              2       4        0.66       700     1000      520     2100   
                                         GEOM     BASIS   MCVARS     RHF  

 PROGRAMS   *        TOTAL    DF-MP2     DF-HF       INT
 CPU TIMES  *         1.60      0.10      0.75      0.60
 REAL TIME  *         2.08 SEC
 DISK USED  *        33.39 MB
 **********************************************************************************************************************************

 DO I                   =         1.00000000   


 PROGRAM * MP2 (Closed-shell)     Authors: C. Hampel, H.-J. Werner, 1991, M. Deegan, P.J. Knowles, 1992

                                   MP2-F12 implementation by H.-J. Werner, 2007

                   Density fitting integral evaluation by F.R. Manby, 2003,2007, G. Knizia, 2010


 Generating basis AVTZ-JKFIT
 Generating basis AVTZ-JKFIT
 Generating basis AUG-CC-PVTZ-MP2FIT

 Convergence thresholds:  THRVAR = 1.00D-08  THRDEN = 1.00D-06

 Number of core orbitals:           9 (   9 )
 Number of closed-shell orbitals:   5 (   5 )
 Number of external orbitals:      79 (  79 )

 Molecular orbitals read from record     2100.2  Type=RHF/CANONICAL (state 1.1)

 MP2-F12 correlation treatment (H.-J. Werner, 2006)
 ==================================================

 Using MP2-F12 with ansatz 3C(FIX)

 Using projected zeroth-order Hamiltonian (+Z)

 FOCKRIB=T FOCKRIC=T FOCKRIP=T CABSP=T CABSA=T CABSK=T CABSF=T GBC=F EBC=F DMAT=T NOFIK=T NOPAO=1 SOLVE=-1  USEPAO=0
 EXCH_A= T EXCH_B= F EXCH_C= F EXCH_P= F

 Geminal basis:    OPTFULL  GEM_TYPE=SLATER  BETA=2.4  NGEM=6

 Optimizing Gaussian exponents for each gem_beta

 Geminal optimization for beta= 2.4000
 Weight function:   m=0, omega= 2.6254

 Augmented Hessian optimization of geminal fit. Trust ratio= 0.40000
 Convergence reached after  61 iterations. Final gradient= 5.53D-18, Step= 9.97D-08, Delta= 7.81D-10

 Alpha:                 0.74256     2.43521     7.54930    24.00410    88.84850   490.04363
 Coeff:                 0.13941     0.27633     0.22936     0.15714     0.10208     0.06423


 All pairs explicitly correlated. Number of r12-pairs:           15

 Excluding core orbitals from MO domains

 AO(A)-basis ORBITAL           loaded. Number of functions:      93
 RI(R)-basis AVTZ/JKFIT        loaded. Number of functions:     264
 DF-basis AVTZ/JKFIT           loaded. Number of functions:     264

 Screening thresholds:   THRAO=  1.00D-14  THRMO=  1.00D-14  THRPROD=  1.00D-14
                         THRSW=  1.00D-14  THROV=  1.00D-14  THRAOF12= 1.00D-08

 CPU time for Fock operators                      0.59 sec

 Construction of ABS:
 Smallest eigenvalue of S          5.60E-06  (threshold= 1.00E-08)
 Ratio eigmin/eigmax               7.88E-07  (threshold= 1.00E-09)
 Smallest eigenvalue of S kept     5.60E-06  (threshold= 5.60E-06, 0 functions deleted, 264 kept)

 Construction of CABS:
 Smallest eigenvalue of S          5.47E-09  (threshold= 1.00E-08)
 Ratio eigmin/eigmax               5.47E-09  (threshold= 1.00E-09)
 Smallest eigenvalue of S kept     2.98E-08  (threshold= 2.98E-08, 2 functions deleted, 262 kept)

 CPU time for CABS transformation                 0.02 sec
 CPU time for CABS singles                        0.02 sec

 CABS-singles contribution of  -0.00098525 patched into reference energy.
 New reference energy       -1638.72753731

 AO(A)-basis ORBITAL           loaded. Number of functions:      93
 RI(R)-basis AVTZ/JKFIT        loaded. Number of functions:     264
 DF-basis AUG-CC-PVTZ/MP2FIT   loaded. Number of functions:     293

 Screening thresholds:   THRAO=  1.00D-14  THRMO=  1.00D-14  THRPROD=  1.00D-14
                         THRSW=  1.00D-14  THROV=  1.00D-14  THRAOF12= 1.00D-08

 CPU time for 3-index integral evaluation         1.15 sec
 CPU time for first  half transformation          0.04 sec ( 11538.0 MFLOP/sec)
 CPU time for second half transformation          0.00 sec (  3051.9 MFLOP/sec)
 CPU time for sorting                             0.01 sec
 CPU time for fitting                             0.01 sec ( 28033.2 MFLOP/sec)
 CPU time for tilde quantities                    0.01 sec ( 30331.8 MFLOP/sec)
 CPU time for assembly                            0.06 sec ( 35691.5 MFLOP/sec)
 CPU time for tranop_f12                          0.10 sec ( 28576.6 MFLOP/sec)
 CPU time for f12 integrals (total)               1.53 sec, Elapsed time:      1.54 sec
 CPU time for f12 matrices (total)                0.03 sec, Elapsed time:      0.03 sec

 Diagonal F12 approximation with fixed coefficients:  TSING= 0.500,  TTRIP= 0.250 (scaled by -1/beta)

 DEBUG & PRINT
 ========================

nij_f12 =       15

nkl_f12 =       15
BEGIN TENSOR PRINT: vmat
dims:    15    15  2
    1     1  1        -0.0115620202
    2     1  1         0.0000000000
    3     1  1         0.0000000000
    4     1  1         0.0000000000
    5     1  1         0.0000000000
    6     1  1         0.0000000000
    7     1  1         0.0000000000
    8     1  1         0.0000000000
    9     1  1         0.0000000000
   10     1  1         0.0000000000
   11     1  1         0.0000000000
   12     1  1         0.0000000000
   13     1  1         0.0000000000
   14     1  1         0.0000000000
   15     1  1         0.0000000000
    1     2  1         0.0000000000
    2     2  1        -0.0115620202
    3     2  1         0.0000000000
    4     2  1         0.0000000000
    5     2  1         0.0000000000
    6     2  1         0.0000000000
    7     2  1         0.0000000000
    8     2  1         0.0000000000
    9     2  1         0.0000000000
   10     2  1         0.0000000000
   11     2  1         0.0000000000
   12     2  1         0.0000000000
   13     2  1         0.0000000000
   14     2  1         0.0000000000
   15     2  1         0.0000000000
    1     3  1         0.0000000000
    2     3  1         0.0000000000
    3     3  1        -0.0115620202
    4     3  1         0.0000000000
    5     3  1         0.0000000000
    6     3  1         0.0000000000
    7     3  1         0.0000000000
    8     3  1         0.0000000000
    9     3  1         0.0000000000
   10     3  1         0.0000000000
   11     3  1         0.0000000000
   12     3  1         0.0000000000
   13     3  1         0.0000000000
   14     3  1         0.0000000000
   15     3  1         0.0000000000
    1     4  1         0.0000000000
    2     4  1         0.0000000000
    3     4  1         0.0000000000
    4     4  1        -0.0115620202
    5     4  1         0.0000000000
    6     4  1         0.0000000000
    7     4  1         0.0000000000
    8     4  1         0.0000000000
    9     4  1         0.0000000000
   10     4  1         0.0000000000
   11     4  1         0.0000000000
   12     4  1         0.0000000000
   13     4  1         0.0000000000
   14     4  1         0.0000000000
   15     4  1         0.0000000000
    1     5  1         0.0000000000
    2     5  1         0.0000000000
    3     5  1         0.0000000000
    4     5  1         0.0000000000
    5     5  1        -0.0115620202
    6     5  1         0.0000000000
    7     5  1         0.0000000000
    8     5  1         0.0000000000
    9     5  1         0.0000000000
   10     5  1         0.0000000000
   11     5  1         0.0000000000
   12     5  1         0.0000000000
   13     5  1         0.0000000000
   14     5  1         0.0000000000
   15     5  1         0.0000000000
    1     6  1         0.0000000000
    2     6  1         0.0000000000
    3     6  1         0.0000000000
    4     6  1         0.0000000000
    5     6  1         0.0000000000
    6     6  1        -0.0043573735
    7     6  1         0.0000000000
    8     6  1         0.0000000000
    9     6  1         0.0000000000
   10     6  1         0.0000000000
   11     6  1         0.0000000000
   12     6  1         0.0000000000
   13     6  1         0.0000000000
   14     6  1         0.0000000000
   15     6  1         0.0000000000
    1     7  1         0.0000000000
    2     7  1         0.0000000000
    3     7  1         0.0000000000
    4     7  1         0.0000000000
    5     7  1         0.0000000000
    6     7  1         0.0000000000
    7     7  1        -0.0043459096
    8     7  1         0.0000000000
    9     7  1         0.0000000000
   10     7  1         0.0000000000
   11     7  1         0.0000000000
   12     7  1         0.0000000000
   13     7  1         0.0000000000
   14     7  1         0.0000000000
   15     7  1         0.0000000000
    1     8  1         0.0000000000
    2     8  1         0.0000000000
    3     8  1         0.0000000000
    4     8  1         0.0000000000
    5     8  1         0.0000000000
    6     8  1         0.0000000000
    7     8  1         0.0000000000
    8     8  1        -0.0043782968
    9     8  1         0.0000000000
   10     8  1         0.0000000000
   11     8  1         0.0000000000
   12     8  1         0.0000000000
   13     8  1         0.0000000000
   14     8  1         0.0000000000
   15     8  1         0.0000000000
    1     9  1         0.0000000000
    2     9  1         0.0000000000
    3     9  1         0.0000000000
    4     9  1         0.0000000000
    5     9  1         0.0000000000
    6     9  1         0.0000000000
    7     9  1         0.0000000000
    8     9  1         0.0000000000
    9     9  1        -0.0043967172
   10     9  1         0.0000000000
   11     9  1         0.0000000000
   12     9  1         0.0000000000
   13     9  1         0.0000000000
   14     9  1         0.0000000000
   15     9  1         0.0000000000
    1    10  1         0.0000000000
    2    10  1         0.0000000000
    3    10  1         0.0000000000
    4    10  1         0.0000000000
    5    10  1         0.0000000000
    6    10  1         0.0000000000
    7    10  1         0.0000000000
    8    10  1         0.0000000000
    9    10  1         0.0000000000
   10    10  1        -0.0043652537
   11    10  1         0.0000000000
   12    10  1         0.0000000000
   13    10  1         0.0000000000
   14    10  1         0.0000000000
   15    10  1         0.0000000000
    1    11  1         0.0000000000
    2    11  1         0.0000000000
    3    11  1         0.0000000000
    4    11  1         0.0000000000
    5    11  1         0.0000000000
    6    11  1         0.0000000000
    7    11  1         0.0000000000
    8    11  1         0.0000000000
    9    11  1         0.0000000000
   10    11  1         0.0000000000
   11    11  1        -0.0043841201
   12    11  1         0.0000000000
   13    11  1         0.0000000000
   14    11  1         0.0000000000
   15    11  1         0.0000000000
    1    12  1         0.0000000000
    2    12  1         0.0000000000
    3    12  1         0.0000000000
    4    12  1         0.0000000000
    5    12  1         0.0000000000
    6    12  1         0.0000000000
    7    12  1         0.0000000000
    8    12  1         0.0000000000
    9    12  1         0.0000000000
   10    12  1         0.0000000000
   11    12  1         0.0000000000
   12    12  1        -0.0043851136
   13    12  1         0.0000000000
   14    12  1         0.0000000000
   15    12  1         0.0000000000
    1    13  1         0.0000000000
    2    13  1         0.0000000000
    3    13  1         0.0000000000
    4    13  1         0.0000000000
    5    13  1         0.0000000000
    6    13  1         0.0000000000
    7    13  1         0.0000000000
    8    13  1         0.0000000000
    9    13  1         0.0000000000
   10    13  1         0.0000000000
   11    13  1         0.0000000000
   12    13  1         0.0000000000
   13    13  1        -0.0043841899
   14    13  1         0.0000000000
   15    13  1         0.0000000000
    1    14  1         0.0000000000
    2    14  1         0.0000000000
    3    14  1         0.0000000000
    4    14  1         0.0000000000
    5    14  1         0.0000000000
    6    14  1         0.0000000000
    7    14  1         0.0000000000
    8    14  1         0.0000000000
    9    14  1         0.0000000000
   10    14  1         0.0000000000
   11    14  1         0.0000000000
   12    14  1         0.0000000000
   13    14  1         0.0000000000
   14    14  1        -0.0043767874
   15    14  1         0.0000000000
    1    15  1         0.0000000000
    2    15  1         0.0000000000
    3    15  1         0.0000000000
    4    15  1         0.0000000000
    5    15  1         0.0000000000
    6    15  1         0.0000000000
    7    15  1         0.0000000000
    8    15  1         0.0000000000
    9    15  1         0.0000000000
   10    15  1         0.0000000000
   11    15  1         0.0000000000
   12    15  1         0.0000000000
   13    15  1         0.0000000000
   14    15  1         0.0000000000
   15    15  1        -0.0043390230
    1     1  2         0.0000000000
    2     1  2         0.0000000000
    3     1  2         0.0000000000
    4     1  2         0.0000000000
    5     1  2         0.0000000000
    6     1  2         0.0000000000
    7     1  2         0.0000000000
    8     1  2         0.0000000000
    9     1  2         0.0000000000
   10     1  2         0.0000000000
   11     1  2         0.0000000000
   12     1  2         0.0000000000
   13     1  2         0.0000000000
   14     1  2         0.0000000000
   15     1  2         0.0000000000
    1     2  2         0.0000000000
    2     2  2         0.0000000000
    3     2  2         0.0000000000
    4     2  2         0.0000000000
    5     2  2         0.0000000000
    6     2  2         0.0000000000
    7     2  2         0.0000000000
    8     2  2         0.0000000000
    9     2  2         0.0000000000
   10     2  2         0.0000000000
   11     2  2         0.0000000000
   12     2  2         0.0000000000
   13     2  2         0.0000000000
   14     2  2         0.0000000000
   15     2  2         0.0000000000
    1     3  2         0.0000000000
    2     3  2         0.0000000000
    3     3  2         0.0000000000
    4     3  2         0.0000000000
    5     3  2         0.0000000000
    6     3  2         0.0000000000
    7     3  2         0.0000000000
    8     3  2         0.0000000000
    9     3  2         0.0000000000
   10     3  2         0.0000000000
   11     3  2         0.0000000000
   12     3  2         0.0000000000
   13     3  2         0.0000000000
   14     3  2         0.0000000000
   15     3  2         0.0000000000
    1     4  2         0.0000000000
    2     4  2         0.0000000000
    3     4  2         0.0000000000
    4     4  2         0.0000000000
    5     4  2         0.0000000000
    6     4  2         0.0000000000
    7     4  2         0.0000000000
    8     4  2         0.0000000000
    9     4  2         0.0000000000
   10     4  2         0.0000000000
   11     4  2         0.0000000000
   12     4  2         0.0000000000
   13     4  2         0.0000000000
   14     4  2         0.0000000000
   15     4  2         0.0000000000
    1     5  2         0.0000000000
    2     5  2         0.0000000000
    3     5  2         0.0000000000
    4     5  2         0.0000000000
    5     5  2         0.0000000000
    6     5  2         0.0000000000
    7     5  2         0.0000000000
    8     5  2         0.0000000000
    9     5  2         0.0000000000
   10     5  2         0.0000000000
   11     5  2         0.0000000000
   12     5  2         0.0000000000
   13     5  2         0.0000000000
   14     5  2         0.0000000000
   15     5  2         0.0000000000
    1     6  2         0.0000000000
    2     6  2         0.0000000000
    3     6  2         0.0000000000
    4     6  2         0.0000000000
    5     6  2         0.0000000000
    6     6  2        -0.0019564676
    7     6  2         0.0000000000
    8     6  2         0.0000000000
    9     6  2         0.0000000000
   10     6  2         0.0000000000
   11     6  2         0.0000000000
   12     6  2         0.0000000000
   13     6  2         0.0000000000
   14     6  2         0.0000000000
   15     6  2         0.0000000000
    1     7  2         0.0000000000
    2     7  2         0.0000000000
    3     7  2         0.0000000000
    4     7  2         0.0000000000
    5     7  2         0.0000000000
    6     7  2         0.0000000000
    7     7  2        -0.0021348924
    8     7  2         0.0000000000
    9     7  2         0.0000000000
   10     7  2         0.0000000000
   11     7  2         0.0000000000
   12     7  2         0.0000000000
   13     7  2         0.0000000000
   14     7  2         0.0000000000
   15     7  2         0.0000000000
    1     8  2         0.0000000000
    2     8  2         0.0000000000
    3     8  2         0.0000000000
    4     8  2         0.0000000000
    5     8  2         0.0000000000
    6     8  2         0.0000000000
    7     8  2         0.0000000000
    8     8  2        -0.0016308140
    9     8  2         0.0000000000
   10     8  2         0.0000000000
   11     8  2         0.0000000000
   12     8  2         0.0000000000
   13     8  2         0.0000000000
   14     8  2         0.0000000000
   15     8  2         0.0000000000
    1     9  2         0.0000000000
    2     9  2         0.0000000000
    3     9  2         0.0000000000
    4     9  2         0.0000000000
    5     9  2         0.0000000000
    6     9  2         0.0000000000
    7     9  2         0.0000000000
    8     9  2         0.0000000000
    9     9  2        -0.0013441170
   10     9  2         0.0000000000
   11     9  2         0.0000000000
   12     9  2         0.0000000000
   13     9  2         0.0000000000
   14     9  2         0.0000000000
   15     9  2         0.0000000000
    1    10  2         0.0000000000
    2    10  2         0.0000000000
    3    10  2         0.0000000000
    4    10  2         0.0000000000
    5    10  2         0.0000000000
    6    10  2         0.0000000000
    7    10  2         0.0000000000
    8    10  2         0.0000000000
    9    10  2         0.0000000000
   10    10  2        -0.0018338182
   11    10  2         0.0000000000
   12    10  2         0.0000000000
   13    10  2         0.0000000000
   14    10  2         0.0000000000
   15    10  2         0.0000000000
    1    11  2         0.0000000000
    2    11  2         0.0000000000
    3    11  2         0.0000000000
    4    11  2         0.0000000000
    5    11  2         0.0000000000
    6    11  2         0.0000000000
    7    11  2         0.0000000000
    8    11  2         0.0000000000
    9    11  2         0.0000000000
   10    11  2         0.0000000000
   11    11  2        -0.0015401806
   12    11  2         0.0000000000
   13    11  2         0.0000000000
   14    11  2         0.0000000000
   15    11  2         0.0000000000
    1    12  2         0.0000000000
    2    12  2         0.0000000000
    3    12  2         0.0000000000
    4    12  2         0.0000000000
    5    12  2         0.0000000000
    6    12  2         0.0000000000
    7    12  2         0.0000000000
    8    12  2         0.0000000000
    9    12  2         0.0000000000
   10    12  2         0.0000000000
   11    12  2         0.0000000000
   12    12  2        -0.0015247162
   13    12  2         0.0000000000
   14    12  2         0.0000000000
   15    12  2         0.0000000000
    1    13  2         0.0000000000
    2    13  2         0.0000000000
    3    13  2         0.0000000000
    4    13  2         0.0000000000
    5    13  2         0.0000000000
    6    13  2         0.0000000000
    7    13  2         0.0000000000
    8    13  2         0.0000000000
    9    13  2         0.0000000000
   10    13  2         0.0000000000
   11    13  2         0.0000000000
   12    13  2         0.0000000000
   13    13  2        -0.0015390934
   14    13  2         0.0000000000
   15    13  2         0.0000000000
    1    14  2         0.0000000000
    2    14  2         0.0000000000
    3    14  2         0.0000000000
    4    14  2         0.0000000000
    5    14  2         0.0000000000
    6    14  2         0.0000000000
    7    14  2         0.0000000000
    8    14  2         0.0000000000
    9    14  2         0.0000000000
   10    14  2         0.0000000000
   11    14  2         0.0000000000
   12    14  2         0.0000000000
   13    14  2         0.0000000000
   14    14  2        -0.0016543062
   15    14  2         0.0000000000
    1    15  2         0.0000000000
    2    15  2         0.0000000000
    3    15  2         0.0000000000
    4    15  2         0.0000000000
    5    15  2         0.0000000000
    6    15  2         0.0000000000
    7    15  2         0.0000000000
    8    15  2         0.0000000000
    9    15  2         0.0000000000
   10    15  2         0.0000000000
   11    15  2         0.0000000000
   12    15  2         0.0000000000
   13    15  2         0.0000000000
   14    15  2         0.0000000000
   15    15  2        -0.0022420774
END TENSOR PRINT: vmat
BEGIN TENSOR PRINT: bmat
dims:    15    15  2
    1     1  1         0.0220145094
    2     1  1         0.0000000000
    3     1  1         0.0000000000
    4     1  1         0.0000000000
    5     1  1         0.0000000000
    6     1  1         0.0000000000
    7     1  1         0.0000000000
    8     1  1         0.0000000000
    9     1  1         0.0000000000
   10     1  1         0.0000000000
   11     1  1         0.0000000000
   12     1  1         0.0000000000
   13     1  1         0.0000000000
   14     1  1         0.0000000000
   15     1  1         0.0000000000
    1     2  1         0.0000000000
    2     2  1         0.0220145094
    3     2  1         0.0000000000
    4     2  1         0.0000000000
    5     2  1         0.0000000000
    6     2  1         0.0000000000
    7     2  1         0.0000000000
    8     2  1         0.0000000000
    9     2  1         0.0000000000
   10     2  1         0.0000000000
   11     2  1         0.0000000000
   12     2  1         0.0000000000
   13     2  1         0.0000000000
   14     2  1         0.0000000000
   15     2  1         0.0000000000
    1     3  1         0.0000000000
    2     3  1         0.0000000000
    3     3  1         0.0220145094
    4     3  1         0.0000000000
    5     3  1         0.0000000000
    6     3  1         0.0000000000
    7     3  1         0.0000000000
    8     3  1         0.0000000000
    9     3  1         0.0000000000
   10     3  1         0.0000000000
   11     3  1         0.0000000000
   12     3  1         0.0000000000
   13     3  1         0.0000000000
   14     3  1         0.0000000000
   15     3  1         0.0000000000
    1     4  1         0.0000000000
    2     4  1         0.0000000000
    3     4  1         0.0000000000
    4     4  1         0.0220145094
    5     4  1         0.0000000000
    6     4  1         0.0000000000
    7     4  1         0.0000000000
    8     4  1         0.0000000000
    9     4  1         0.0000000000
   10     4  1         0.0000000000
   11     4  1         0.0000000000
   12     4  1         0.0000000000
   13     4  1         0.0000000000
   14     4  1         0.0000000000
   15     4  1         0.0000000000
    1     5  1         0.0000000000
    2     5  1         0.0000000000
    3     5  1         0.0000000000
    4     5  1         0.0000000000
    5     5  1         0.0220145094
    6     5  1         0.0000000000
    7     5  1         0.0000000000
    8     5  1         0.0000000000
    9     5  1         0.0000000000
   10     5  1         0.0000000000
   11     5  1         0.0000000000
   12     5  1         0.0000000000
   13     5  1         0.0000000000
   14     5  1         0.0000000000
   15     5  1         0.0000000000
    1     6  1         0.0000000000
    2     6  1         0.0000000000
    3     6  1         0.0000000000
    4     6  1         0.0000000000
    5     6  1         0.0000000000
    6     6  1         0.0081374967
    7     6  1         0.0000000000
    8     6  1         0.0000000000
    9     6  1         0.0000000000
   10     6  1         0.0000000000
   11     6  1         0.0000000000
   12     6  1         0.0000000000
   13     6  1         0.0000000000
   14     6  1         0.0000000000
   15     6  1         0.0000000000
    1     7  1         0.0000000000
    2     7  1         0.0000000000
    3     7  1         0.0000000000
    4     7  1         0.0000000000
    5     7  1         0.0000000000
    6     7  1         0.0000000000
    7     7  1         0.0079975802
    8     7  1         0.0000000000
    9     7  1         0.0000000000
   10     7  1         0.0000000000
   11     7  1         0.0000000000
   12     7  1         0.0000000000
   13     7  1         0.0000000000
   14     7  1         0.0000000000
   15     7  1         0.0000000000
    1     8  1         0.0000000000
    2     8  1         0.0000000000
    3     8  1         0.0000000000
    4     8  1         0.0000000000
    5     8  1         0.0000000000
    6     8  1         0.0000000000
    7     8  1         0.0000000000
    8     8  1         0.0083928663
    9     8  1         0.0000000000
   10     8  1         0.0000000000
   11     8  1         0.0000000000
   12     8  1         0.0000000000
   13     8  1         0.0000000000
   14     8  1         0.0000000000
   15     8  1         0.0000000000
    1     9  1         0.0000000000
    2     9  1         0.0000000000
    3     9  1         0.0000000000
    4     9  1         0.0000000000
    5     9  1         0.0000000000
    6     9  1         0.0000000000
    7     9  1         0.0000000000
    8     9  1         0.0000000000
    9     9  1         0.0086176871
   10     9  1         0.0000000000
   11     9  1         0.0000000000
   12     9  1         0.0000000000
   13     9  1         0.0000000000
   14     9  1         0.0000000000
   15     9  1         0.0000000000
    1    10  1         0.0000000000
    2    10  1         0.0000000000
    3    10  1         0.0000000000
    4    10  1         0.0000000000
    5    10  1         0.0000000000
    6    10  1         0.0000000000
    7    10  1         0.0000000000
    8    10  1         0.0000000000
    9    10  1         0.0000000000
   10    10  1         0.0082336753
   11    10  1         0.0000000000
   12    10  1         0.0000000000
   13    10  1         0.0000000000
   14    10  1         0.0000000000
   15    10  1         0.0000000000
    1    11  1         0.0000000000
    2    11  1         0.0000000000
    3    11  1         0.0000000000
    4    11  1         0.0000000000
    5    11  1         0.0000000000
    6    11  1         0.0000000000
    7    11  1         0.0000000000
    8    11  1         0.0000000000
    9    11  1         0.0000000000
   10    11  1         0.0000000000
   11    11  1         0.0084639388
   12    11  1         0.0000000000
   13    11  1         0.0000000000
   14    11  1         0.0000000000
   15    11  1         0.0000000000
    1    12  1         0.0000000000
    2    12  1         0.0000000000
    3    12  1         0.0000000000
    4    12  1         0.0000000000
    5    12  1         0.0000000000
    6    12  1         0.0000000000
    7    12  1         0.0000000000
    8    12  1         0.0000000000
    9    12  1         0.0000000000
   10    12  1         0.0000000000
   11    12  1         0.0000000000
   12    12  1         0.0084760657
   13    12  1         0.0000000000
   14    12  1         0.0000000000
   15    12  1         0.0000000000
    1    13  1         0.0000000000
    2    13  1         0.0000000000
    3    13  1         0.0000000000
    4    13  1         0.0000000000
    5    13  1         0.0000000000
    6    13  1         0.0000000000
    7    13  1         0.0000000000
    8    13  1         0.0000000000
    9    13  1         0.0000000000
   10    13  1         0.0000000000
   11    13  1         0.0000000000
   12    13  1         0.0000000000
   13    13  1         0.0084647914
   14    13  1         0.0000000000
   15    13  1         0.0000000000
    1    14  1         0.0000000000
    2    14  1         0.0000000000
    3    14  1         0.0000000000
    4    14  1         0.0000000000
    5    14  1         0.0000000000
    6    14  1         0.0000000000
    7    14  1         0.0000000000
    8    14  1         0.0000000000
    9    14  1         0.0000000000
   10    14  1         0.0000000000
   11    14  1         0.0000000000
   12    14  1         0.0000000000
   13    14  1         0.0000000000
   14    14  1         0.0083744443
   15    14  1         0.0000000000
    1    15  1         0.0000000000
    2    15  1         0.0000000000
    3    15  1         0.0000000000
    4    15  1         0.0000000000
    5    15  1         0.0000000000
    6    15  1         0.0000000000
    7    15  1         0.0000000000
    8    15  1         0.0000000000
    9    15  1         0.0000000000
   10    15  1         0.0000000000
   11    15  1         0.0000000000
   12    15  1         0.0000000000
   13    15  1         0.0000000000
   14    15  1         0.0000000000
   15    15  1         0.0079135284
    1     1  2         0.0000000000
    2     1  2         0.0000000000
    3     1  2         0.0000000000
    4     1  2         0.0000000000
    5     1  2         0.0000000000
    6     1  2         0.0000000000
    7     1  2         0.0000000000
    8     1  2         0.0000000000
    9     1  2         0.0000000000
   10     1  2         0.0000000000
   11     1  2         0.0000000000
   12     1  2         0.0000000000
   13     1  2         0.0000000000
   14     1  2         0.0000000000
   15     1  2         0.0000000000
    1     2  2         0.0000000000
    2     2  2         0.0000000000
    3     2  2         0.0000000000
    4     2  2         0.0000000000
    5     2  2         0.0000000000
    6     2  2         0.0000000000
    7     2  2         0.0000000000
    8     2  2         0.0000000000
    9     2  2         0.0000000000
   10     2  2         0.0000000000
   11     2  2         0.0000000000
   12     2  2         0.0000000000
   13     2  2         0.0000000000
   14     2  2         0.0000000000
   15     2  2         0.0000000000
    1     3  2         0.0000000000
    2     3  2         0.0000000000
    3     3  2         0.0000000000
    4     3  2         0.0000000000
    5     3  2         0.0000000000
    6     3  2         0.0000000000
    7     3  2         0.0000000000
    8     3  2         0.0000000000
    9     3  2         0.0000000000
   10     3  2         0.0000000000
   11     3  2         0.0000000000
   12     3  2         0.0000000000
   13     3  2         0.0000000000
   14     3  2         0.0000000000
   15     3  2         0.0000000000
    1     4  2         0.0000000000
    2     4  2         0.0000000000
    3     4  2         0.0000000000
    4     4  2         0.0000000000
    5     4  2         0.0000000000
    6     4  2         0.0000000000
    7     4  2         0.0000000000
    8     4  2         0.0000000000
    9     4  2         0.0000000000
   10     4  2         0.0000000000
   11     4  2         0.0000000000
   12     4  2         0.0000000000
   13     4  2         0.0000000000
   14     4  2         0.0000000000
   15     4  2         0.0000000000
    1     5  2         0.0000000000
    2     5  2         0.0000000000
    3     5  2         0.0000000000
    4     5  2         0.0000000000
    5     5  2         0.0000000000
    6     5  2         0.0000000000
    7     5  2         0.0000000000
    8     5  2         0.0000000000
    9     5  2         0.0000000000
   10     5  2         0.0000000000
   11     5  2         0.0000000000
   12     5  2         0.0000000000
   13     5  2         0.0000000000
   14     5  2         0.0000000000
   15     5  2         0.0000000000
    1     6  2         0.0000000000
    2     6  2         0.0000000000
    3     6  2         0.0000000000
    4     6  2         0.0000000000
    5     6  2         0.0000000000
    6     6  2         0.0063221688
    7     6  2         0.0000000000
    8     6  2         0.0000000000
    9     6  2         0.0000000000
   10     6  2         0.0000000000
   11     6  2         0.0000000000
   12     6  2         0.0000000000
   13     6  2         0.0000000000
   14     6  2         0.0000000000
   15     6  2         0.0000000000
    1     7  2         0.0000000000
    2     7  2         0.0000000000
    3     7  2         0.0000000000
    4     7  2         0.0000000000
    5     7  2         0.0000000000
    6     7  2         0.0000000000
    7     7  2         0.0069094902
    8     7  2         0.0000000000
    9     7  2         0.0000000000
   10     7  2         0.0000000000
   11     7  2         0.0000000000
   12     7  2         0.0000000000
   13     7  2         0.0000000000
   14     7  2         0.0000000000
   15     7  2         0.0000000000
    1     8  2         0.0000000000
    2     8  2         0.0000000000
    3     8  2         0.0000000000
    4     8  2         0.0000000000
    5     8  2         0.0000000000
    6     8  2         0.0000000000
    7     8  2         0.0000000000
    8     8  2         0.0052502142
    9     8  2         0.0000000000
   10     8  2         0.0000000000
   11     8  2         0.0000000000
   12     8  2         0.0000000000
   13     8  2         0.0000000000
   14     8  2         0.0000000000
   15     8  2         0.0000000000
    1     9  2         0.0000000000
    2     9  2         0.0000000000
    3     9  2         0.0000000000
    4     9  2         0.0000000000
    5     9  2         0.0000000000
    6     9  2         0.0000000000
    7     9  2         0.0000000000
    8     9  2         0.0000000000
    9     9  2         0.0043064933
   10     9  2         0.0000000000
   11     9  2         0.0000000000
   12     9  2         0.0000000000
   13     9  2         0.0000000000
   14     9  2         0.0000000000
   15     9  2         0.0000000000
    1    10  2         0.0000000000
    2    10  2         0.0000000000
    3    10  2         0.0000000000
    4    10  2         0.0000000000
    5    10  2         0.0000000000
    6    10  2         0.0000000000
    7    10  2         0.0000000000
    8    10  2         0.0000000000
    9    10  2         0.0000000000
   10    10  2         0.0059184436
   11    10  2         0.0000000000
   12    10  2         0.0000000000
   13    10  2         0.0000000000
   14    10  2         0.0000000000
   15    10  2         0.0000000000
    1    11  2         0.0000000000
    2    11  2         0.0000000000
    3    11  2         0.0000000000
    4    11  2         0.0000000000
    5    11  2         0.0000000000
    6    11  2         0.0000000000
    7    11  2         0.0000000000
    8    11  2         0.0000000000
    9    11  2         0.0000000000
   10    11  2         0.0000000000
   11    11  2         0.0049518762
   12    11  2         0.0000000000
   13    11  2         0.0000000000
   14    11  2         0.0000000000
   15    11  2         0.0000000000
    1    12  2         0.0000000000
    2    12  2         0.0000000000
    3    12  2         0.0000000000
    4    12  2         0.0000000000
    5    12  2         0.0000000000
    6    12  2         0.0000000000
    7    12  2         0.0000000000
    8    12  2         0.0000000000
    9    12  2         0.0000000000
   10    12  2         0.0000000000
   11    12  2         0.0000000000
   12    12  2         0.0049009719
   13    12  2         0.0000000000
   14    12  2         0.0000000000
   15    12  2         0.0000000000
    1    13  2         0.0000000000
    2    13  2         0.0000000000
    3    13  2         0.0000000000
    4    13  2         0.0000000000
    5    13  2         0.0000000000
    6    13  2         0.0000000000
    7    13  2         0.0000000000
    8    13  2         0.0000000000
    9    13  2         0.0000000000
   10    13  2         0.0000000000
   11    13  2         0.0000000000
   12    13  2         0.0000000000
   13    13  2         0.0049482976
   14    13  2         0.0000000000
   15    13  2         0.0000000000
    1    14  2         0.0000000000
    2    14  2         0.0000000000
    3    14  2         0.0000000000
    4    14  2         0.0000000000
    5    14  2         0.0000000000
    6    14  2         0.0000000000
    7    14  2         0.0000000000
    8    14  2         0.0000000000
    9    14  2         0.0000000000
   10    14  2         0.0000000000
   11    14  2         0.0000000000
   12    14  2         0.0000000000
   13    14  2         0.0000000000
   14    14  2         0.0053275436
   15    14  2         0.0000000000
    1    15  2         0.0000000000
    2    15  2         0.0000000000
    3    15  2         0.0000000000
    4    15  2         0.0000000000
    5    15  2         0.0000000000
    6    15  2         0.0000000000
    7    15  2         0.0000000000
    8    15  2         0.0000000000
    9    15  2         0.0000000000
   10    15  2         0.0000000000
   11    15  2         0.0000000000
   12    15  2         0.0000000000
   13    15  2         0.0000000000
   14    15  2         0.0000000000
   15    15  2         0.0072623111
END TENSOR PRINT: bmat
BEGIN TENSOR PRINT: xmat
dims:    15    15  2
    1     1  1         0.0003892331
    2     1  1         0.0000806529
    3     1  1         0.0000827138
    4     1  1         0.0000735801
    5     1  1         0.0000756660
    6     1  1        -0.0000000000
    7     1  1         0.0000000000
    8     1  1        -0.0000016849
    9     1  1        -0.0000000000
   10     1  1        -0.0000016827
   11     1  1         0.0000003523
   12     1  1         0.0000000000
   13     1  1         0.0000042541
   14     1  1         0.0000004381
   15     1  1        -0.0000008890
    1     2  1         0.0000806529
    2     2  1         0.0003892331
    3     2  1         0.0000768915
    4     2  1         0.0000792363
    5     2  1         0.0000758321
    6     2  1        -0.0000000000
    7     2  1         0.0000027385
    8     2  1         0.0000000000
    9     2  1        -0.0000032800
   10     2  1        -0.0000000000
   11     2  1        -0.0000046380
   12     2  1        -0.0000020304
   13     2  1        -0.0000000000
   14     2  1        -0.0000009248
   15     2  1        -0.0000000139
    1     3  1         0.0000827138
    2     3  1         0.0000768915
    3     3  1         0.0003892331
    4     3  1         0.0000758447
    5     3  1         0.0000771628
    6     3  1        -0.0000005291
    7     3  1         0.0000000000
    8     3  1         0.0000000000
    9     3  1         0.0000045635
   10     3  1         0.0000007494
   11     3  1        -0.0000000000
   12     3  1         0.0000038867
   13     3  1        -0.0000000849
   14     3  1        -0.0000000000
   15     3  1         0.0000009029
    1     4  1         0.0000735801
    2     4  1         0.0000792363
    3     4  1         0.0000758447
    4     4  1         0.0003892331
    5     4  1         0.0000839518
    6     4  1        -0.0000000247
    7     4  1        -0.0000005978
    8     4  1        -0.0000000709
    9     4  1        -0.0000000000
   10     4  1         0.0000000000
   11     4  1        -0.0000000000
   12     4  1        -0.0000018563
   13     4  1        -0.0000041691
   14     4  1         0.0000004867
   15     4  1         0.0000000000
    1     5  1         0.0000756660
    2     5  1         0.0000758321
    3     5  1         0.0000771628
    4     5  1         0.0000839518
    5     5  1         0.0003892331
    6     5  1         0.0000005539
    7     5  1        -0.0000021407
    8     5  1         0.0000017558
    9     5  1        -0.0000012836
   10     5  1         0.0000009333
   11     5  1         0.0000042857
   12     5  1         0.0000000000
   13     5  1        -0.0000000000
   14     5  1         0.0000000000
   15     5  1         0.0000000000
    1     6  1        -0.0000000000
    2     6  1        -0.0000000000
    3     6  1        -0.0000005291
    4     6  1        -0.0000000247
    5     6  1         0.0000005539
    6     6  1         0.0001542901
    7     6  1         0.0000008424
    8     6  1        -0.0000013692
    9     6  1         0.0000008413
   10     6  1         0.0000016400
   11     6  1         0.0000014328
   12     6  1        -0.0000021270
   13     6  1         0.0000010152
   14     6  1        -0.0000033714
   15     6  1         0.0000011868
    1     7  1         0.0000000000
    2     7  1         0.0000027385
    3     7  1         0.0000000000
    4     7  1        -0.0000005978
    5     7  1        -0.0000021407
    6     7  1         0.0000008424
    7     7  1         0.0001532597
    8     7  1         0.0000002646
    9     7  1        -0.0000001761
   10     7  1         0.0000014767
   11     7  1        -0.0000022818
   12     7  1        -0.0000002191
   13     7  1        -0.0000004577
   14     7  1        -0.0000019434
   15     7  1         0.0000010335
    1     8  1        -0.0000016849
    2     8  1         0.0000000000
    3     8  1         0.0000000000
    4     8  1        -0.0000000709
    5     8  1         0.0000017558
    6     8  1        -0.0000013692
    7     8  1         0.0000002646
    8     8  1         0.0001561708
    9     8  1        -0.0000029095
   10     8  1         0.0000023190
   11     8  1        -0.0000003747
   12     8  1         0.0000038291
   13     8  1         0.0000004624
   14     8  1         0.0000000425
   15     8  1         0.0000006659
    1     9  1        -0.0000000000
    2     9  1        -0.0000032800
    3     9  1         0.0000045635
    4     9  1        -0.0000000000
    5     9  1        -0.0000012836
    6     9  1         0.0000008413
    7     9  1        -0.0000001761
    8     9  1        -0.0000029095
    9     9  1         0.0001578265
   10     9  1         0.0000000124
   11     9  1         0.0000002989
   12     9  1         0.0000004445
   13     9  1        -0.0000027770
   14     9  1        -0.0000005720
   15     9  1         0.0000009281
    1    10  1        -0.0000016827
    2    10  1        -0.0000000000
    3    10  1         0.0000007494
    4    10  1         0.0000000000
    5    10  1         0.0000009333
    6    10  1         0.0000016400
    7    10  1         0.0000014767
    8    10  1         0.0000023190
    9    10  1         0.0000000124
   10    10  1         0.0001549984
   11    10  1         0.0000000355
   12    10  1         0.0000015902
   13    10  1         0.0000000070
   14    10  1        -0.0000033284
   15    10  1         0.0000020846
    1    11  1         0.0000003523
    2    11  1        -0.0000046380
    3    11  1        -0.0000000000
    4    11  1        -0.0000000000
    5    11  1         0.0000042857
    6    11  1         0.0000014328
    7    11  1        -0.0000022818
    8    11  1        -0.0000003747
    9    11  1         0.0000002989
   10    11  1         0.0000000355
   11    11  1         0.0001566942
   12    11  1        -0.0000004614
   13    11  1         0.0000026625
   14    11  1        -0.0000004514
   15    11  1        -0.0000002433
    1    12  1         0.0000000000
    2    12  1        -0.0000020304
    3    12  1         0.0000038867
    4    12  1        -0.0000018563
    5    12  1         0.0000000000
    6    12  1        -0.0000021270
    7    12  1        -0.0000002191
    8    12  1         0.0000038291
    9    12  1         0.0000004445
   10    12  1         0.0000015902
   11    12  1        -0.0000004614
   12    12  1         0.0001567835
   13    12  1        -0.0000002769
   14    12  1         0.0000010704
   15    12  1         0.0000006418
    1    13  1         0.0000042541
    2    13  1        -0.0000000000
    3    13  1        -0.0000000849
    4    13  1        -0.0000041691
    5    13  1        -0.0000000000
    6    13  1         0.0000010152
    7    13  1        -0.0000004577
    8    13  1         0.0000004624
    9    13  1        -0.0000027770
   10    13  1         0.0000000070
   11    13  1         0.0000026625
   12    13  1        -0.0000002769
   13    13  1         0.0001567005
   14    13  1        -0.0000008779
   15    13  1        -0.0000004666
    1    14  1         0.0000004381
    2    14  1        -0.0000009248
    3    14  1        -0.0000000000
    4    14  1         0.0000004867
    5    14  1         0.0000000000
    6    14  1        -0.0000033714
    7    14  1        -0.0000019434
    8    14  1         0.0000000425
    9    14  1        -0.0000005720
   10    14  1        -0.0000033284
   11    14  1        -0.0000004514
   12    14  1         0.0000010704
   13    14  1        -0.0000008779
   14    14  1         0.0001560351
   15    14  1        -0.0000021428
    1    15  1        -0.0000008890
    2    15  1        -0.0000000139
    3    15  1         0.0000009029
    4    15  1         0.0000000000
    5    15  1         0.0000000000
    6    15  1         0.0000011868
    7    15  1         0.0000010335
    8    15  1         0.0000006659
    9    15  1         0.0000009281
   10    15  1         0.0000020846
   11    15  1        -0.0000002433
   12    15  1         0.0000006418
   13    15  1        -0.0000004666
   14    15  1        -0.0000021428
   15    15  1         0.0001526407
    1     1  2         0.0000000000
    2     1  2         0.0000000000
    3     1  2         0.0000000000
    4     1  2         0.0000000000
    5     1  2         0.0000000000
    6     1  2         0.0000000000
    7     1  2         0.0000000000
    8     1  2         0.0000000000
    9     1  2         0.0000000000
   10     1  2         0.0000000000
   11     1  2         0.0000000000
   12     1  2         0.0000000000
   13     1  2         0.0000000000
   14     1  2         0.0000000000
   15     1  2         0.0000000000
    1     2  2         0.0000000000
    2     2  2         0.0000000000
    3     2  2         0.0000000000
    4     2  2         0.0000000000
    5     2  2         0.0000000000
    6     2  2         0.0000000000
    7     2  2         0.0000000000
    8     2  2         0.0000000000
    9     2  2         0.0000000000
   10     2  2         0.0000000000
   11     2  2         0.0000000000
   12     2  2         0.0000000000
   13     2  2         0.0000000000
   14     2  2         0.0000000000
   15     2  2         0.0000000000
    1     3  2         0.0000000000
    2     3  2         0.0000000000
    3     3  2         0.0000000000
    4     3  2         0.0000000000
    5     3  2         0.0000000000
    6     3  2         0.0000000000
    7     3  2         0.0000000000
    8     3  2         0.0000000000
    9     3  2         0.0000000000
   10     3  2         0.0000000000
   11     3  2         0.0000000000
   12     3  2         0.0000000000
   13     3  2         0.0000000000
   14     3  2         0.0000000000
   15     3  2         0.0000000000
    1     4  2         0.0000000000
    2     4  2         0.0000000000
    3     4  2         0.0000000000
    4     4  2         0.0000000000
    5     4  2         0.0000000000
    6     4  2         0.0000000000
    7     4  2         0.0000000000
    8     4  2         0.0000000000
    9     4  2         0.0000000000
   10     4  2         0.0000000000
   11     4  2         0.0000000000
   12     4  2         0.0000000000
   13     4  2         0.0000000000
   14     4  2         0.0000000000
   15     4  2         0.0000000000
    1     5  2         0.0000000000
    2     5  2         0.0000000000
    3     5  2         0.0000000000
    4     5  2         0.0000000000
    5     5  2         0.0000000000
    6     5  2         0.0000000000
    7     5  2         0.0000000000
    8     5  2         0.0000000000
    9     5  2         0.0000000000
   10     5  2         0.0000000000
   11     5  2         0.0000000000
   12     5  2         0.0000000000
   13     5  2         0.0000000000
   14     5  2         0.0000000000
   15     5  2         0.0000000000
    1     6  2         0.0000000000
    2     6  2         0.0000000000
    3     6  2         0.0000000000
    4     6  2         0.0000000000
    5     6  2         0.0000000000
    6     6  2         0.0001046013
    7     6  2        -0.0000068577
    8     6  2        -0.0000111461
    9     6  2        -0.0000068487
   10     6  2         0.0000133501
   11     6  2         0.0000119015
   12     6  2         0.0000173148
   13     6  2         0.0000082643
   14     6  2        -0.0000116321
   15     6  2        -0.0000118504
    1     7  2         0.0000000000
    2     7  2         0.0000000000
    3     7  2         0.0000000000
    4     7  2         0.0000000000
    5     7  2         0.0000000000
    6     7  2        -0.0000068577
    7     7  2         0.0001129894
    8     7  2        -0.0000021537
    9     7  2         0.0000014338
   10     7  2         0.0000117824
   11     7  2        -0.0000185744
   12     7  2         0.0000017833
   13     7  2        -0.0000195382
   14     7  2        -0.0000158196
   15     7  2        -0.0000003001
    1     8  2         0.0000000000
    2     8  2         0.0000000000
    3     8  2         0.0000000000
    4     8  2         0.0000000000
    5     8  2         0.0000000000
    6     8  2        -0.0000111461
    7     8  2        -0.0000021537
    8     8  2         0.0000892918
    9     8  2        -0.0000001191
   10     8  2        -0.0000188773
   11     8  2        -0.0000030501
   12     8  2        -0.0000079061
   13     8  2        -0.0000037640
   14     8  2         0.0000003457
   15     8  2        -0.0000162560
    1     9  2         0.0000000000
    2     9  2         0.0000000000
    3     9  2         0.0000000000
    4     9  2         0.0000000000
    5     9  2         0.0000000000
    6     9  2        -0.0000068487
    7     9  2         0.0000014338
    8     9  2        -0.0000001191
    9     9  2         0.0000758137
   10     9  2        -0.0000001006
   11     9  2        -0.0000024330
   12     9  2        -0.0000036182
   13     9  2        -0.0000010947
   14     9  2         0.0000040563
   15     9  2         0.0000075553
    1    10  2         0.0000000000
    2    10  2         0.0000000000
    3    10  2         0.0000000000
    4    10  2         0.0000000000
    5    10  2         0.0000000000
    6    10  2         0.0000133501
    7    10  2         0.0000117824
    8    10  2        -0.0000188773
    9    10  2        -0.0000001006
   10    10  2         0.0000988354
   11    10  2        -0.0000002886
   12    10  2         0.0000107557
   13    10  2        -0.0000000567
   14    10  2        -0.0000054178
   15    10  2         0.0000169690
    1    11  2         0.0000000000
    2    11  2         0.0000000000
    3    11  2         0.0000000000
    4    11  2         0.0000000000
    5    11  2         0.0000000000
    6    11  2         0.0000119015
    7    11  2        -0.0000185744
    8    11  2        -0.0000030501
    9    11  2        -0.0000024330
   10    11  2        -0.0000002886
   11    11  2         0.0000850310
   12    11  2         0.0000043564
   13    11  2         0.0000108382
   14    11  2         0.0000036749
   15    11  2        -0.0000019808
    1    12  2         0.0000000000
    2    12  2         0.0000000000
    3    12  2         0.0000000000
    4    12  2         0.0000000000
    5    12  2         0.0000000000
    6    12  2         0.0000173148
    7    12  2         0.0000017833
    8    12  2        -0.0000079061
    9    12  2        -0.0000036182
   10    12  2         0.0000107557
   11    12  2         0.0000043564
   12    12  2         0.0000843040
   13    12  2         0.0000022543
   14    12  2        -0.0000087131
   15    12  2        -0.0000052243
    1    13  2         0.0000000000
    2    13  2         0.0000000000
    3    13  2         0.0000000000
    4    13  2         0.0000000000
    5    13  2         0.0000000000
    6    13  2         0.0000082643
    7    13  2        -0.0000195382
    8    13  2        -0.0000037640
    9    13  2        -0.0000010947
   10    13  2        -0.0000000567
   11    13  2         0.0000108382
   12    13  2         0.0000022543
   13    13  2         0.0000849799
   14    13  2         0.0000071463
   15    13  2         0.0000037986
    1    14  2         0.0000000000
    2    14  2         0.0000000000
    3    14  2         0.0000000000
    4    14  2         0.0000000000
    5    14  2         0.0000000000
    6    14  2        -0.0000116321
    7    14  2        -0.0000158196
    8    14  2         0.0000003457
    9    14  2         0.0000040563
   10    14  2        -0.0000054178
   11    14  2         0.0000036749
   12    14  2        -0.0000087131
   13    14  2         0.0000071463
   14    14  2         0.0000903962
   15    14  2         0.0000174435
    1    15  2         0.0000000000
    2    15  2         0.0000000000
    3    15  2         0.0000000000
    4    15  2         0.0000000000
    5    15  2         0.0000000000
    6    15  2        -0.0000118504
    7    15  2        -0.0000003001
    8    15  2        -0.0000162560
    9    15  2         0.0000075553
   10    15  2         0.0000169690
   11    15  2        -0.0000019808
   12    15  2        -0.0000052243
   13    15  2         0.0000037986
   14    15  2         0.0000174435
   15    15  2         0.0001180284
END TENSOR PRINT: xmat

 DF-MP2-F12 energy corrections:
 ==============================
 Approx.                                    Singlet             Triplet             Total
 DF-MP2-F12/3*C(DX,FIX)                -0.036308917700     -0.013050362222     -0.049359279922
 DF-MP2-F12/3*C(FIX)                   -0.037066681189     -0.015295553742     -0.052362234931
 DF-MP2-F12/3C(FIX)                    -0.036412033387     -0.015602399244     -0.052014432631

 DF-MP2-F12 correlation energies:
 ================================
 Approx.                                    Singlet             Triplet             Ecorr            Total Energy
 DF-MP2                                -0.220098559931     -0.264355821694     -0.484454381626  -1639.211991692101
 DF-MP2-F12/3*C(DX,FIX)                -0.256407477631     -0.277406183917     -0.533813661548  -1639.261350972023
 DF-MP2-F12/3*C(FIX)                   -0.257165241120     -0.279651375436     -0.536816616556  -1639.264353927031
 DF-MP2-F12/3C(FIX)                    -0.256510593318     -0.279958220939     -0.536468814257  -1639.264006124732

 SCS-DF-MP2 energies (F_SING= 1.20000  F_TRIP= 0.62222  F_PARALLEL= 0.33333):
 ============================================================================
 SCS-DF-MP2                            -0.428606338750  -1639.156143649225
 SCS-DF-MP2-F12/3*C(DX,FIX)            -0.480297265372  -1639.207834575848
 SCS-DF-MP2-F12/3*C(FIX)               -0.482603589616  -1639.210140900091
 SCS-DF-MP2-F12/3C(FIX)                -0.482008938344  -1639.209546248819


  Reference energy                  -1638.726552059237
  F12 singles correction               -0.000985251238

 F12 singles corrections added to reference energy

  New reference energy              -1638.727537310475

  F12/3C(F) singlet correction         -0.036412033387
  F12/3C(F) triplet correction         -0.015602399244
  F12/3C(F) total correction           -0.052014432631
  MP2-F12/3C(F) singlet pair energy    -0.256510593318
  MP2-F12/3C(F) triplet pair energy    -0.279958220939
  MP2-F12/3C(F) correlation energy     -0.536468814257

 !MP2-F12/3C(F) total energy        -1639.264006124732


 **********************************************************************************************************************************
 DATASETS  * FILE   NREC   LENGTH (MB)   RECORD NAMES
              1      18       29.36       500      610      700      900      950      970     1000      129      960     1100   
                                          VAR    BASINP    GEOM    SYMINP    ZMAT    AOBASIS   BASIS     P2S    ABASIS      S 
                                         1400     1410     1200     1210     1080     1600     1650     1700   
                                           T        V       H0       H01     AOSYM     SMH    MOLCAS    OPER   

              2       5        0.77       700     1000      520     2100     7360   
                                         GEOM     BASIS   MCVARS     RHF    F12ABS    

 PROGRAMS   *        TOTAL   MP2-F12    DF-MP2     DF-HF       INT
 CPU TIMES  *         3.87      2.27      0.10      0.75      0.60
 REAL TIME  *         4.44 SEC
 DISK USED  *       128.21 MB
 **********************************************************************************************************************************
 TOT_ENER(1)     =   -1639.26400612  AU                              
 REF_ENER(1)     =   -1638.72753731  AU                              
 CORR_ENER(1)    =      -0.53646881  AU                              


   GEM_BETA       TOT_ENER       REF_ENER     CORR_ENER
        2.4   -1639.264006   -1638.727537   -0.53646881
                                                  

 DF-MP2-F12/aug-cc-pVTZ energy=  -1639.264006124732

      DF-MP2-F12          DF-MP2           DF-HF
  -1639.26400612  -1639.21100637  -1638.72655206
 **********************************************************************************************************************************
 Molpro calculation terminated
